    1C
    1UUSER                                                              
    1UDATE              01.july.2020                                    
    1UTIME              22:56:10                                        
    1UHOST                                                              
    1UPGM               CalculiX                                        
    1UVERSION           Version 2.15                             
    1UCOMPILETIME       Sa 15. Dez 15:34:34 CET 2018                    
    1UDIR                                                               
    1UDBN                                                               
    1UMAT    1STEEL                                                     
    2C                          3049                                     1
 -1         1 9.49219E+01 0.00000E+00 0.00000E+00
 -1         2 9.33594E+01 0.00000E+00 0.00000E+00
 -1         3 9.41956E+01 1.47888E+00 0.00000E+00
 -1         4 9.28284E+01 1.38916E+00 0.00000E+00
 -1         5 9.21875E+01 0.00000E+00 0.00000E+00
 -1         6 9.10156E+01 0.00000E+00 0.00000E+00
 -1         7 8.94531E+01 0.00000E+00 0.00000E+00
 -1         8 8.94440E+01 1.96777E+00 0.00000E+00
 -1         9 8.82812E+01 0.00000E+00 0.00000E+00
 -1        10 8.71094E+01 0.00000E+00 0.00000E+00
 -1        11 8.64258E+01 1.01562E+00 0.00000E+00
 -1        12 8.55469E+01 0.00000E+00 0.00000E+00
 -1        13 8.46680E+01 1.14258E+00 0.00000E+00
 -1        14 8.43750E+01 0.00000E+00 0.00000E+00
 -1        15 8.32031E+01 0.00000E+00 0.00000E+00
 -1        16 8.34167E+01 2.05200E+00 0.00000E+00
 -1        17 8.16406E+01 0.00000E+00 0.00000E+00
 -1        18 8.15796E+01 1.22803E+00 0.00000E+00
 -1        19 0.00000E+00 8.43750E+00 0.00000E+00
 -1        20 0.00000E+00 9.84375E+00 4.68750E-01
 -1        21 1.17188E+00 1.00000E+01 0.00000E+00
 -1        22 0.00000E+00 1.25000E+00 0.00000E+00
 -1        23 9.76562E-01 9.17969E-01 0.00000E+00
 -1        24 1.95312E-01 1.56250E-01 1.56250E-01
 -1        25 1.95312E+00 0.00000E+00 0.00000E+00
 -1        26 8.00781E+01 0.00000E+00 0.00000E+00
 -1        27 7.99072E+01 1.24512E+00 0.00000E+00
 -1        28 8.08960E+01 2.60925E+00 0.00000E+00
 -1        29 7.94922E+01 2.30103E+00 0.00000E+00
 -1        30 7.85156E+01 0.00000E+00 0.00000E+00
 -1        31 7.87598E+01 1.31836E+00 0.00000E+00
 -1        32 7.75879E+01 1.39160E+00 0.00000E+00
 -1        33 7.79297E+01 2.45239E+00 0.00000E+00
 -1        34 7.69531E+01 0.00000E+00 0.00000E+00
 -1        35 7.60254E+01 1.48926E+00 0.00000E+00
 -1        36 7.67578E+01 2.56592E+00 0.00000E+00
 -1        37 7.57812E+01 0.00000E+00 0.00000E+00
 -1        38 7.56104E+01 3.15186E+00 0.00000E+00
 -1        39 7.46094E+01 0.00000E+00 0.00000E+00
 -1        40 7.44629E+01 1.58691E+00 0.00000E+00
 -1        41 7.40234E+01 2.83081E+00 0.00000E+00
 -1        42 7.30469E+01 0.00000E+00 0.00000E+00
 -1        43 7.29004E+01 1.68457E+00 0.00000E+00
 -1        44 7.24854E+01 3.43506E+00 0.00000E+00
 -1        45 7.14844E+01 0.00000E+00 0.00000E+00
 -1        46 7.13379E+01 1.78223E+00 0.00000E+00
 -1        47 7.08984E+01 3.13354E+00 0.00000E+00
 -1        48 0.00000E+00 2.65625E+00 0.00000E+00
 -1        49 6.99219E+01 0.00000E+00 0.00000E+00
 -1        50 6.97754E+01 1.87988E+00 0.00000E+00
 -1        51 6.91040E+01 3.00659E+00 0.00000E+00
 -1        52 6.87500E+01 0.00000E+00 0.00000E+00
 -1        53 6.85547E+01 1.56250E+00 0.00000E+00
 -1        54 6.75781E+01 0.00000E+00 0.00000E+00
 -1        55 6.73828E+01 1.62109E+00 0.00000E+00
 -1        56 6.79382E+01 3.55988E+00 0.00000E+00
 -1        57 1.70898E+00 8.40820E+00 0.00000E+00
 -1        58 2.73438E+00 1.00000E+01 0.00000E+00
 -1        59 6.60156E+01 0.00000E+00 0.00000E+00
 -1        60 6.59912E+01 2.43896E+00 0.00000E+00
 -1        61 6.66626E+01 3.90991E+00 0.00000E+00
 -1        62 6.51855E+01 1.29883E+00 0.00000E+00
 -1        63 6.54297E+01 3.66333E+00 0.00000E+00
 -1        64 6.44531E+01 0.00000E+00 0.00000E+00
 -1        65 6.46484E+01 2.97852E+00 0.00000E+00
 -1        66 6.37695E+01 8.98438E-01 0.00000E+00
 -1        67 6.36230E+01 2.49390E+00 0.00000E+00
 -1        68 6.37939E+01 4.12170E+00 0.00000E+00
 -1        69 6.32812E+01 0.00000E+00 0.00000E+00
 -1        70 0.00000E+00 7.18750E+00 0.00000E+00
 -1        71 6.20605E+01 1.29761E+00 0.00000E+00
 -1        72 6.21094E+01 0.00000E+00 0.00000E+00
 -1        73 6.22803E+01 2.94067E+00 0.00000E+00
 -1        74 6.22314E+01 4.26575E+00 0.00000E+00
 -1        75 6.05957E+01 1.34521E+00 0.00000E+00
 -1        76 6.05469E+01 0.00000E+00 0.00000E+00
 -1        77 6.11084E+01 3.03223E+00 0.00000E+00
 -1        78 6.05225E+01 4.02191E+00 0.00000E+00
 -1        79 5.96436E+01 2.38403E+00 0.00000E+00
 -1        80 5.94849E+01 1.13159E+00 0.00000E+00
 -1        81 5.89844E+01 0.00000E+00 0.00000E+00
 -1        82 5.89050E+01 3.26782E+00 0.00000E+00
 -1        83 5.94971E+01 4.51782E+00 0.00000E+00
 -1        84 5.84473E+01 1.55029E+00 0.00000E+00
 -1        85 5.83252E+01 4.62585E+00 0.00000E+00
 -1        86 3.17383E+00 9.07715E+00 0.00000E+00
 -1        87 5.74219E+01 0.00000E+00 0.00000E+00
 -1        88 5.72510E+01 2.39502E+00 0.00000E+00
 -1        89 5.73486E+01 3.45947E+00 0.00000E+00
 -1        90 5.67627E+01 1.34277E+00 0.00000E+00
 -1        91 5.71533E+01 4.73389E+00 0.00000E+00
 -1        92 5.62500E+01 0.00000E+00 0.00000E+00
 -1        93 5.55542E+01 2.63123E+00 0.00000E+00
 -1        94 5.59082E+01 3.85498E+00 0.00000E+00
 -1        95 1.41602E+00 1.98242E+00 0.00000E+00
 -1        96 2.61841E+00 1.33301E+00 0.00000E+00
 -1        97 5.50781E+01 0.00000E+00 0.00000E+00
 -1        98 5.44312E+01 1.55884E+00 0.00000E+00
 -1        99 5.41260E+01 2.57080E+00 0.00000E+00
 -1       100 5.44556E+01 4.12231E+00 0.00000E+00
 -1       101 5.35156E+01 0.00000E+00 0.00000E+00
 -1       102 5.28564E+01 1.46484E+00 0.00000E+00
 -1       103 5.29541E+01 2.63672E+00 0.00000E+00
 -1       104 5.25024E+01 4.30298E+00 0.00000E+00
 -1       105 5.35156E+01 4.64844E+00 0.00000E+00
 -1       106 5.19531E+01 0.00000E+00 0.00000E+00
 -1       107 5.17456E+01 2.25220E+00 0.00000E+00
 -1       108 5.12451E+01 9.08203E-01 0.00000E+00
 -1       109 5.12207E+01 4.26514E+00 0.00000E+00
 -1       110 5.04517E+01 2.00317E+00 0.00000E+00
 -1       111 5.03906E+01 0.00000E+00 0.00000E+00
 -1       112 5.02930E+01 3.72314E+00 0.00000E+00
 -1       113 4.98291E+01 2.81250E+00 0.00000E+00
 -1       114 4.98291E+01 5.33203E+00 0.00000E+00
 -1       115 4.87366E+01 1.35315E+00 0.00000E+00
 -1       116 4.88281E+01 0.00000E+00 0.00000E+00
 -1       117 4.86572E+01 2.87842E+00 0.00000E+00
 -1       118 4.87549E+01 4.15771E+00 0.00000E+00
 -1       119 1.43127E+00 6.33148E+00 0.00000E+00
 -1       120 0.00000E+00 5.46875E+00 0.00000E+00
 -1       121 4.78760E+01 5.51270E+00 0.00000E+00
 -1       122 4.73877E+01 1.63574E+00 0.00000E+00
 -1       123 4.72656E+01 0.00000E+00 0.00000E+00
 -1       124 4.70947E+01 2.96631E+00 0.00000E+00
 -1       125 4.71924E+01 4.28467E+00 0.00000E+00
 -1       126 4.62646E+01 5.03418E+00 0.00000E+00
 -1       127 4.57520E+01 2.02393E+00 0.00000E+00
 -1       128 4.61670E+01 1.00342E+00 0.00000E+00
 -1       129 4.57031E+01 0.00000E+00 0.00000E+00
 -1       130 1.32446E+00 3.32031E+00 0.00000E+00
 -1       131 0.00000E+00 4.06250E+00 0.00000E+00
 -1       132 4.59717E+01 3.70605E+00 0.00000E+00
 -1       133 4.47510E+01 3.09814E+00 0.00000E+00
 -1       134 4.52393E+01 4.44336E+00 0.00000E+00
 -1       135 4.55444E+01 5.87769E+00 0.00000E+00
 -1       136 4.42871E+01 2.08008E+00 0.00000E+00
 -1       137 4.46045E+01 1.03271E+00 0.00000E+00
 -1       138 4.45312E+01 0.00000E+00 0.00000E+00
 -1       139 4.40674E+01 4.53857E+00 0.00000E+00
 -1       140 4.41772E+01 5.99976E+00 0.00000E+00
 -1       141 2.72026E+00 6.83029E+00 0.00000E+00
 -1       142 2.92969E+00 8.03711E+00 0.00000E+00
 -1       143 4.29688E+00 1.00000E+01 0.00000E+00
 -1       144 4.34326E+01 1.05469E+00 0.00000E+00
 -1       145 4.33594E+01 0.00000E+00 0.00000E+00
 -1       146 4.31885E+01 3.18604E+00 0.00000E+00
 -1       147 4.31152E+01 2.12402E+00 0.00000E+00
 -1       148 4.24805E+01 4.30664E+00 0.00000E+00
 -1       149 4.28467E+01 5.26611E+00 0.00000E+00
 -1       150 4.19312E+01 1.98853E+00 0.00000E+00
 -1       151 4.21875E+01 0.00000E+00 0.00000E+00
 -1       152 4.20166E+01 3.25195E+00 0.00000E+00
 -1       153 4.16748E+01 5.37415E+00 0.00000E+00
 -1       154 4.10156E+01 0.00000E+00 0.00000E+00
 -1       155 4.08203E+01 2.94922E+00 0.00000E+00
 -1       156 4.08936E+01 4.05518E+00 0.00000E+00
 -1       157 2.33154E+00 2.77344E+00 0.00000E+00
 -1       158 3.12500E+00 0.00000E+00 0.00000E+00
 -1       159 4.07471E+01 1.84326E+00 0.00000E+00
 -1       160 4.05029E+01 5.48218E+00 0.00000E+00
 -1       161 3.95752E+01 1.87988E+00 0.00000E+00
 -1       162 3.94531E+01 0.00000E+00 0.00000E+00
 -1       163 3.96729E+01 3.38379E+00 0.00000E+00
 -1       164 3.97461E+01 4.51172E+00 0.00000E+00
 -1       165 3.94775E+01 5.97809E+00 0.00000E+00
 -1       166 3.87207E+01 7.61719E-01 0.00000E+00
 -1       167 3.84766E+01 3.06641E+00 0.00000E+00
 -1       168 3.85498E+01 4.21631E+00 0.00000E+00
 -1       169 3.80127E+01 1.92871E+00 0.00000E+00
 -1       170 3.78906E+01 0.00000E+00 0.00000E+00
 -1       171 3.81592E+01 5.69824E+00 0.00000E+00
 -1       172 3.73047E+01 3.12500E+00 0.00000E+00
 -1       173 3.69995E+01 4.52148E+00 0.00000E+00
 -1       174 3.69873E+01 5.80627E+00 0.00000E+00
 -1       175 3.66455E+01 1.97266E+00 0.00000E+00
 -1       176 3.63281E+01 0.00000E+00 0.00000E+00
 -1       177 3.61572E+01 3.58154E+00 0.00000E+00
 -1       178 3.56445E+01 1.60156E+00 0.00000E+00
 -1       179 3.54980E+01 5.53711E+00 0.00000E+00
 -1       180 3.47412E+01 2.84668E+00 0.00000E+00
 -1       181 3.46436E+01 1.22070E+00 0.00000E+00
 -1       182 3.47656E+01 0.00000E+00 0.00000E+00
 -1       183 3.50098E+01 4.05273E+00 0.00000E+00
 -1       184 3.38379E+01 4.12598E+00 0.00000E+00
 -1       185 3.40088E+01 5.25146E+00 0.00000E+00
 -1       186 3.45703E+01 6.33667E+00 0.00000E+00
 -1       187 3.31787E+01 2.91504E+00 0.00000E+00
 -1       188 3.30383E+01 1.19751E+00 0.00000E+00
 -1       189 3.35938E+01 0.00000E+00 0.00000E+00
 -1       190 3.29956E+01 5.48950E+00 0.00000E+00
 -1       191 3.27393E+01 6.61682E+00 0.00000E+00
 -1       192 3.24219E+01 0.00000E+00 0.00000E+00
 -1       193 3.22754E+01 4.22363E+00 0.00000E+00
 -1       194 3.16162E+01 2.98340E+00 0.00000E+00
 -1       195 3.14758E+01 1.22559E+00 0.00000E+00
 -1       196 3.14941E+01 5.77454E+00 0.00000E+00
 -1       197 3.16162E+01 7.33765E+00 0.00000E+00
 -1       198 3.12500E+01 0.00000E+00 0.00000E+00
 -1       199 4.29688E+00 0.00000E+00 0.00000E+00
 -1       200 3.07129E+01 4.32129E+00 0.00000E+00
 -1       201 3.02490E+01 3.04199E+00 0.00000E+00
 -1       202 2.99133E+01 1.25366E+00 0.00000E+00
 -1       203 3.00781E+01 0.00000E+00 0.00000E+00
 -1       204 3.02979E+01 5.54810E+00 0.00000E+00
 -1       205 3.05664E+01 6.61621E+00 0.00000E+00
 -1       206 2.91016E+01 3.53516E+00 0.00000E+00
 -1       207 2.89429E+01 4.93225E+00 0.00000E+00
 -1       208 2.92725E+01 6.40442E+00 0.00000E+00
 -1       209 5.46875E+00 1.00000E+01 0.00000E+00
 -1       210 5.15747E+00 8.39050E+00 0.00000E+00
 -1       211 2.84546E+01 2.33948E+00 0.00000E+00
 -1       212 2.83936E+01 1.11450E+00 0.00000E+00
 -1       213 2.89062E+01 0.00000E+00 0.00000E+00
 -1       214 2.77344E+01 0.00000E+00 0.00000E+00
 -1       215 2.75391E+01 3.61328E+00 0.00000E+00
 -1       216 2.73804E+01 5.04089E+00 0.00000E+00
 -1       217 2.73193E+01 6.58386E+00 0.00000E+00
 -1       218 2.83203E+01 6.94214E+00 0.00000E+00
 -1       219 2.72461E+01 1.58569E+00 0.00000E+00
 -1       220 2.64038E+01 2.40723E+00 0.00000E+00
 -1       221 2.60498E+01 1.15112E+00 0.00000E+00
 -1       222 2.61719E+01 0.00000E+00 0.00000E+00
 -1       223 2.59766E+01 3.69141E+00 0.00000E+00
 -1       224 2.63428E+01 4.94019E+00 0.00000E+00
 -1       225 2.59521E+01 6.70654E+00 0.00000E+00
 -1       226 2.53723E+01 2.26685E+00 0.00000E+00
 -1       227 2.50732E+01 4.90723E+00 0.00000E+00
 -1       228 2.48779E+01 1.16943E+00 0.00000E+00
 -1       229 2.46094E+01 0.00000E+00 0.00000E+00
 -1       230 2.44141E+01 3.53394E+00 0.00000E+00
 -1       231 2.43896E+01 6.84814E+00 0.00000E+00
 -1       232 2.42554E+01 2.47681E+00 0.00000E+00
 -1       233 2.37061E+01 1.18774E+00 0.00000E+00
 -1       234 2.35107E+01 5.00977E+00 0.00000E+00
 -1       235 2.30835E+01 2.51526E+00 0.00000E+00
 -1       236 2.34375E+01 0.00000E+00 0.00000E+00
 -1       237 6.64062E+00 1.00000E+01 0.00000E+00
 -1       238 4.44603E+00 7.12952E+00 0.00000E+00
 -1       239 2.23572E+01 3.50830E+00 0.00000E+00
 -1       240 2.28271E+01 6.98975E+00 0.00000E+00
 -1       241 2.21436E+01 1.21216E+00 0.00000E+00
 -1       242 2.22656E+01 0.00000E+00 0.00000E+00
 -1       243 2.19238E+01 4.50378E+00 0.00000E+00
 -1       244 2.23633E+01 5.57129E+00 0.00000E+00
 -1       245 2.14111E+01 2.20337E+00 0.00000E+00
 -1       246 2.11914E+01 5.65552E+00 0.00000E+00
 -1       247 2.16309E+01 6.60645E+00 0.00000E+00
 -1       248 2.12891E+01 7.62329E+00 0.00000E+00
 -1       249 2.06909E+01 3.46069E+00 0.00000E+00
 -1       250 2.05811E+01 1.23657E+00 0.00000E+00
 -1       251 2.10938E+01 0.00000E+00 0.00000E+00
 -1       252 2.03613E+01 4.59412E+00 0.00000E+00
 -1       253 2.04590E+01 6.70532E+00 0.00000E+00
 -1       254 1.97540E+01 2.31110E+00 0.00000E+00
 -1       255 1.99219E+01 0.00000E+00 0.00000E+00
 -1       256 1.96960E+01 5.69946E+00 0.00000E+00
 -1       257 1.98059E+01 7.57751E+00 0.00000E+00
 -1       258 3.71475E+00 3.20488E+00 0.00000E+00
 -1       259 4.16260E+00 1.95312E+00 0.00000E+00
 -1       260 5.11932E+00 1.50360E+00 0.00000E+00
 -1       261 5.85938E+00 0.00000E+00 0.00000E+00
 -1       262 1.93054E+01 3.26843E+00 0.00000E+00
 -1       263 1.89148E+01 4.29565E+00 0.00000E+00
 -1       264 1.84326E+01 1.52466E+00 0.00000E+00
 -1       265 1.83594E+01 0.00000E+00 0.00000E+00
 -1       266 1.82312E+01 5.48523E+00 0.00000E+00
 -1       267 1.83167E+01 7.27112E+00 0.00000E+00
 -1       268 1.84204E+01 8.77197E+00 0.00000E+00
 -1       269 1.77338E+01 3.26874E+00 0.00000E+00
 -1       270 1.73950E+01 4.37866E+00 0.00000E+00
 -1       271 6.82373E+00 8.72314E+00 0.00000E+00
 -1       272 1.69067E+01 2.32910E+00 0.00000E+00
 -1       273 1.68549E+01 1.22894E+00 0.00000E+00
 -1       274 1.67969E+01 0.00000E+00 0.00000E+00
 -1       275 1.70532E+01 5.43457E+00 0.00000E+00
 -1       276 1.67084E+01 6.43494E+00 0.00000E+00
 -1       277 1.71509E+01 7.50488E+00 0.00000E+00
 -1       278 1.68945E+01 8.74023E+00 0.00000E+00
 -1       279 1.61743E+01 3.39600E+00 0.00000E+00
 -1       280 1.62415E+01 4.83276E+00 0.00000E+00
 -1       281 1.59790E+01 7.61108E+00 0.00000E+00
 -1       282 1.53412E+01 2.30743E+00 0.00000E+00
 -1       283 1.52832E+01 1.05591E+00 0.00000E+00
 -1       284 1.56250E+01 0.00000E+00 0.00000E+00
 -1       285 1.50574E+01 4.63562E+00 0.00000E+00
 -1       286 1.51306E+01 6.22498E+00 0.00000E+00
 -1       287 1.53320E+01 8.85742E+00 0.00000E+00
 -1       288 1.46118E+01 3.45947E+00 0.00000E+00
 -1       289 1.44531E+01 0.00000E+00 0.00000E+00
 -1       290 1.44196E+01 7.81982E+00 0.00000E+00
 -1       291 1.36902E+01 2.55554E+00 0.00000E+00
 -1       292 1.35742E+01 4.31091E+00 0.00000E+00
 -1       293 1.35651E+01 6.27258E+00 0.00000E+00
 -1       294 2.14233E+00 3.99200E+00 0.00000E+00
 -1       295 1.33423E+01 1.34888E+00 0.00000E+00
 -1       296 1.28906E+01 0.00000E+00 0.00000E+00
 -1       297 1.27319E+01 5.17212E+00 0.00000E+00
 -1       298 1.29639E+01 8.15796E+00 0.00000E+00
 -1       299 1.22864E+01 3.96484E+00 0.00000E+00
 -1       300 1.22009E+01 2.05078E+00 0.00000E+00
 -1       301 1.21460E+01 8.20312E-01 0.00000E+00
 -1       302 1.19995E+01 6.31714E+00 0.00000E+00
 -1       303 1.20483E+01 7.41577E+00 0.00000E+00
 -1       304 1.13281E+01 0.00000E+00 0.00000E+00
 -1       305 1.08246E+01 4.10004E+00 0.00000E+00
 -1       306 1.11694E+01 5.26489E+00 0.00000E+00
 -1       307 1.12061E+01 8.32153E+00 0.00000E+00
 -1       308 1.10718E+01 3.04810E+00 0.00000E+00
 -1       309 1.06323E+01 1.94824E+00 0.00000E+00
 -1       310 1.08337E+01 6.54053E+00 0.00000E+00
 -1       311 9.67407E+00 2.39075E+00 0.00000E+00
 -1       312 9.76562E+00 0.00000E+00 0.00000E+00
 -1       313 9.63440E+00 5.99243E+00 0.00000E+00
 -1       314 9.72290E+00 8.03650E+00 0.00000E+00
 -1       315 9.76562E+00 1.00000E+01 0.00000E+00
 -1       316 9.14307E+00 3.68164E+00 0.00000E+00
 -1       317 8.80127E+00 4.83521E+00 0.00000E+00
 -1       318 8.48999E+00 2.13745E+00 0.00000E+00
 -1       319 8.59375E+00 0.00000E+00 0.00000E+00
 -1       320 8.05664E+00 5.73608E+00 0.00000E+00
 -1       321 8.51440E+00 7.28394E+00 0.00000E+00
 -1       322 8.17871E+00 8.60474E+00 0.00000E+00
 -1       323 7.79419E+00 3.37402E+00 0.00000E+00
 -1       324 7.42188E+00 0.00000E+00 0.00000E+00
 -1       325 7.37991E+00 4.33640E+00 0.00000E+00
 -1       326 7.22198E+00 6.71524E+00 0.00000E+00
 -1       327 6.58112E+00 1.90460E+00 0.00000E+00
 -1       328 8.20312E+00 1.00000E+01 0.00000E+00
 -1       329 6.15616E+00 7.37076E+00 0.00000E+00
 -1       330 2.08588E+00 5.04395E+00 0.00000E+00
 -1       331 5.29976E+00 2.93510E+00 0.00000E+00
 -1       332 6.53687E+00 3.10059E+00 0.00000E+00
 -1       333 3.40118E+00 5.65971E+00 0.00000E+00
 -1       334 5.61256E+00 5.85304E+00 0.00000E+00
 -1       335 6.77490E+00 5.30807E+00 0.00000E+00
 -1       336 5.96199E+00 4.22050E+00 0.00000E+00
 -1       337 4.03900E+00 4.65969E+00 0.00000E+00
 -1       338 1.13281E+01 1.00000E+01 0.00000E+00
 -1       339 1.28906E+01 1.00000E+01 0.00000E+00
 -1       340 1.44531E+01 1.00000E+01 0.00000E+00
 -1       341 1.60156E+01 1.00000E+01 0.00000E+00
 -1       342 1.71875E+01 1.00000E+01 0.00000E+00
 -1       343 1.83594E+01 1.00000E+01 0.00000E+00
 -1       344 1.00000E+02 1.56250E+00 0.00000E+00
 -1       345 1.00000E+02 3.12500E-01 0.00000E+00
 -1       346 9.88281E+01 0.00000E+00 0.00000E+00
 -1       347 1.00000E+02 8.28125E+00 0.00000E+00
 -1       348 9.87061E+01 8.61816E+00 0.00000E+00
 -1       349 9.98047E+01 9.84375E+00 1.56250E-01
 -1       350 9.80469E+01 1.00000E+01 0.00000E+00
 -1       351 1.99219E+01 1.00000E+01 0.00000E+00
 -1       352 2.00928E+01 8.75488E+00 0.00000E+00
 -1       353 2.14844E+01 1.00000E+01 0.00000E+00
 -1       354 2.12402E+01 8.68164E+00 0.00000E+00
 -1       355 2.24121E+01 8.60840E+00 0.00000E+00
 -1       356 2.26562E+01 1.00000E+01 0.00000E+00
 -1       357 2.38281E+01 1.00000E+01 0.00000E+00
 -1       358 2.39746E+01 8.51074E+00 0.00000E+00
 -1       359 2.50000E+01 1.00000E+01 0.00000E+00
 -1       360 2.55371E+01 8.41309E+00 0.00000E+00
 -1       361 2.61719E+01 1.00000E+01 0.00000E+00
 -1       362 2.67090E+01 8.33984E+00 0.00000E+00
 -1       363 2.77344E+01 1.00000E+01 0.00000E+00
 -1       364 2.78809E+01 8.26660E+00 0.00000E+00
 -1       365 2.92969E+01 1.00000E+01 0.00000E+00
 -1       366 2.94434E+01 8.16895E+00 0.00000E+00
 -1       367 3.08594E+01 1.00000E+01 0.00000E+00
 -1       368 3.06152E+01 8.09570E+00 0.00000E+00
 -1       369 3.18359E+01 8.41797E+00 0.00000E+00
 -1       370 3.24219E+01 1.00000E+01 0.00000E+00
 -1       371 3.36426E+01 8.75000E+00 0.00000E+00
 -1       372 3.39844E+01 1.00000E+01 0.00000E+00
 -1       373 3.39844E+01 7.35107E+00 0.00000E+00
 -1       374 3.48145E+01 8.70605E+00 0.00000E+00
 -1       375 3.51562E+01 1.00000E+01 0.00000E+00
 -1       376 3.55835E+01 7.45117E+00 0.00000E+00
 -1       377 3.63281E+01 1.00000E+01 0.00000E+00
 -1       378 3.69141E+01 8.16406E+00 0.00000E+00
 -1       379 3.69385E+01 7.12036E+00 0.00000E+00
 -1       380 1.00000E+02 2.81250E+00 0.00000E+00
 -1       381 3.79395E+01 8.70239E+00 0.00000E+00
 -1       382 3.78906E+01 1.00000E+01 0.00000E+00
 -1       383 3.85010E+01 6.99829E+00 0.00000E+00
 -1       384 3.91113E+01 8.54004E+00 0.00000E+00
 -1       385 3.94531E+01 1.00000E+01 0.00000E+00
 -1       386 4.01001E+01 8.75610E+00 0.00000E+00
 -1       387 3.99170E+01 7.51709E+00 0.00000E+00
 -1       388 4.10156E+01 1.00000E+01 0.00000E+00
 -1       389 4.12048E+01 7.88696E+00 0.00000E+00
 -1       390 4.06982E+01 6.69922E+00 0.00000E+00
 -1       391 4.18701E+01 6.60400E+00 0.00000E+00
 -1       392 9.64844E+01 0.00000E+00 0.00000E+00
 -1       393 9.73999E+01 1.09009E+00 0.00000E+00
 -1       394 9.76562E+01 0.00000E+00 0.00000E+00
 -1       395 9.84375E+01 2.05078E+00 0.00000E+00
 -1       396 4.25781E+01 1.00000E+01 0.00000E+00
 -1       397 4.26758E+01 7.87720E+00 0.00000E+00
 -1       398 4.30542E+01 6.64307E+00 0.00000E+00
 -1       399 4.36279E+01 8.64502E+00 0.00000E+00
 -1       400 4.41406E+01 1.00000E+01 0.00000E+00
 -1       401 4.43115E+01 7.51709E+00 0.00000E+00
 -1       402 9.72351E+01 8.82324E+00 0.00000E+00
 -1       403 4.47998E+01 8.60840E+00 0.00000E+00
 -1       404 4.57031E+01 1.00000E+01 0.00000E+00
 -1       405 4.54834E+01 7.45117E+00 0.00000E+00
 -1       406 4.63623E+01 8.55957E+00 0.00000E+00
 -1       407 4.66553E+01 7.38525E+00 0.00000E+00
 -1       408 4.68750E+01 1.00000E+01 0.00000E+00
 -1       409 4.73633E+01 6.45752E+00 0.00000E+00
 -1       410 4.79858E+01 8.06030E+00 0.00000E+00
 -1       411 4.80469E+01 1.00000E+01 0.00000E+00
 -1       412 4.89990E+01 7.25342E+00 0.00000E+00
 -1       413 4.89014E+01 6.03271E+00 0.00000E+00
 -1       414 4.90967E+01 8.47412E+00 0.00000E+00
 -1       415 4.92188E+01 1.00000E+01 0.00000E+00
 -1       416 5.00244E+01 7.81982E+00 0.00000E+00
 -1       417 5.03906E+01 1.00000E+01 0.00000E+00
 -1       418 5.05127E+01 6.53564E+00 0.00000E+00
 -1       419 5.11963E+01 7.76855E+00 0.00000E+00
 -1       420 5.12207E+01 5.52246E+00 0.00000E+00
 -1       421 9.87793E+01 3.34473E+00 0.00000E+00
 -1       422 1.00000E+02 4.06250E+00 0.00000E+00
 -1       423 5.18799E+01 9.03320E+00 0.00000E+00
 -1       424 5.15625E+01 1.00000E+01 0.00000E+00
 -1       425 5.16846E+01 6.45508E+00 0.00000E+00
 -1       426 5.25879E+01 8.03711E+00 0.00000E+00
 -1       427 5.27344E+01 1.00000E+01 0.00000E+00
 -1       428 5.29053E+01 7.03369E+00 0.00000E+00
 -1       429 5.28076E+01 5.71533E+00 0.00000E+00
 -1       430 5.30518E+01 9.01123E+00 0.00000E+00
 -1       431 5.41748E+01 8.31543E+00 0.00000E+00
 -1       432 5.42969E+01 1.00000E+01 0.00000E+00
 -1       433 9.64844E+01 1.00000E+01 0.00000E+00
 -1       434 9.87610E+01 6.53320E+00 0.00000E+00
 -1       435 1.00000E+02 6.56250E+00 0.00000E+00
 -1       436 5.40771E+01 6.96777E+00 0.00000E+00
 -1       437 5.43701E+01 5.58838E+00 0.00000E+00
 -1       438 5.52490E+01 6.90186E+00 0.00000E+00
 -1       439 5.57129E+01 7.91992E+00 0.00000E+00
 -1       440 5.57861E+01 8.95996E+00 0.00000E+00
 -1       441 5.58594E+01 1.00000E+01 0.00000E+00
 -1       442 5.59326E+01 5.46143E+00 0.00000E+00
 -1       443 9.74731E+01 2.37183E+00 0.00000E+00
 -1       444 5.68237E+01 6.99219E+00 0.00000E+00
 -1       445 5.72998E+01 8.21777E+00 0.00000E+00
 -1       446 5.74219E+01 1.00000E+01 0.00000E+00
 -1       447 5.75439E+01 6.05225E+00 0.00000E+00
 -1       448 5.86182E+01 7.44629E+00 0.00000E+00
 -1       449 5.89111E+01 8.90137E+00 0.00000E+00
 -1       450 5.89844E+01 1.00000E+01 0.00000E+00
 -1       451 5.87158E+01 5.97168E+00 0.00000E+00
 -1       452 9.77234E+01 7.18750E+00 0.00000E+00
 -1       453 5.99609E+01 7.01172E+00 0.00000E+00
 -1       454 5.98877E+01 5.89111E+00 0.00000E+00
 -1       455 6.04126E+01 7.93091E+00 0.00000E+00
 -1       456 6.05469E+01 1.00000E+01 0.00000E+00
 -1       457 6.12549E+01 8.85742E+00 0.00000E+00
 -1       458 6.17432E+01 7.30957E+00 0.00000E+00
 -1       459 6.14502E+01 5.78369E+00 0.00000E+00
 -1       460 6.21094E+01 1.00000E+01 0.00000E+00
 -1       461 6.24268E+01 8.83545E+00 0.00000E+00
 -1       462 6.30615E+01 6.46240E+00 0.00000E+00
 -1       463 6.25977E+01 5.31250E+00 0.00000E+00
 -1       464 6.31348E+01 7.64160E+00 0.00000E+00
 -1       465 6.35986E+01 8.81348E+00 0.00000E+00
 -1       466 6.36719E+01 1.00000E+01 0.00000E+00
 -1       467 6.37695E+01 5.22461E+00 0.00000E+00
 -1       468 1.00000E+02 5.31250E+00 0.00000E+00
 -1       469 6.43066E+01 7.59766E+00 0.00000E+00
 -1       470 6.46240E+01 6.37451E+00 0.00000E+00
 -1       471 6.51611E+01 8.78418E+00 0.00000E+00
 -1       472 6.52344E+01 1.00000E+01 0.00000E+00
 -1       473 6.55029E+01 4.78699E+00 0.00000E+00
 -1       474 9.56543E+01 1.37207E+00 0.00000E+00
 -1       475 6.56494E+01 7.13623E+00 0.00000E+00
 -1       476 6.61621E+01 5.87402E+00 0.00000E+00
 -1       477 6.68213E+01 7.08496E+00 0.00000E+00
 -1       478 6.69617E+01 8.80249E+00 0.00000E+00
 -1       479 6.64062E+01 1.00000E+01 0.00000E+00
 -1       480 6.75781E+01 1.00000E+01 0.00000E+00
 -1       481 6.77246E+01 5.77637E+00 0.00000E+00
 -1       482 6.75537E+01 4.62402E+00 0.00000E+00
 -1       483 6.83838E+01 7.01660E+00 0.00000E+00
 -1       484 6.85242E+01 8.77441E+00 0.00000E+00
 -1       485 6.91406E+01 1.00000E+01 0.00000E+00
 -1       486 9.49219E+01 1.00000E+01 0.00000E+00
 -1       487 6.92871E+01 5.67871E+00 0.00000E+00
 -1       488 6.91162E+01 4.49951E+00 0.00000E+00
 -1       489 6.95557E+01 6.96533E+00 0.00000E+00
 -1       490 6.97388E+01 8.58887E+00 0.00000E+00
 -1       491 7.01660E+01 4.08569E+00 0.00000E+00
 -1       492 7.08618E+01 7.68433E+00 0.00000E+00
 -1       493 7.08252E+01 8.89771E+00 0.00000E+00
 -1       494 7.07031E+01 1.00000E+01 0.00000E+00
 -1       495 7.08984E+01 6.46484E+00 0.00000E+00
 -1       496 7.07275E+01 5.25757E+00 0.00000E+00
 -1       497 9.80804E+01 4.24652E+00 0.00000E+00
 -1       498 9.72767E+01 3.38486E+00 0.00000E+00
 -1       499 7.13623E+01 4.43237E+00 0.00000E+00
 -1       500 7.23816E+01 7.80273E+00 0.00000E+00
 -1       501 7.23877E+01 8.87329E+00 0.00000E+00
 -1       502 7.22656E+01 1.00000E+01 0.00000E+00
 -1       503 7.24609E+01 6.38672E+00 0.00000E+00
 -1       504 7.25830E+01 5.13245E+00 0.00000E+00
 -1       505 7.35962E+01 7.59277E+00 0.00000E+00
 -1       506 7.39502E+01 8.84888E+00 0.00000E+00
 -1       507 7.34375E+01 1.00000E+01 0.00000E+00
 -1       508 7.42920E+01 5.94604E+00 0.00000E+00
 -1       509 7.40967E+01 4.21875E+00 0.00000E+00
 -1       510 7.46277E+01 7.73315E+00 0.00000E+00
 -1       511 7.46094E+01 1.00000E+01 0.00000E+00
 -1       512 7.55127E+01 8.82446E+00 0.00000E+00
 -1       513 7.51953E+01 6.48438E+00 0.00000E+00
 -1       514 7.57080E+01 5.04150E+00 0.00000E+00
 -1       515 7.57446E+01 7.52319E+00 0.00000E+00
 -1       516 7.61719E+01 1.00000E+01 0.00000E+00
 -1       517 7.63672E+01 6.42944E+00 0.00000E+00
 -1       518 7.69165E+01 7.48474E+00 0.00000E+00
 -1       519 7.70752E+01 8.80005E+00 0.00000E+00
 -1       520 9.55540E+01 2.87048E+00 0.00000E+00
 -1       521 7.69043E+01 5.44434E+00 0.00000E+00
 -1       522 7.72217E+01 3.97461E+00 0.00000E+00
 -1       523 7.77344E+01 1.00000E+01 0.00000E+00
 -1       524 7.78381E+01 6.48254E+00 0.00000E+00
 -1       525 7.80762E+01 5.49622E+00 0.00000E+00
 -1       526 7.86133E+01 8.28613E+00 0.00000E+00
 -1       527 7.87842E+01 3.85254E+00 0.00000E+00
 -1       528 7.93091E+01 6.53931E+00 0.00000E+00
 -1       529 7.89062E+01 1.00000E+01 0.00000E+00
 -1       530 7.96387E+01 5.40588E+00 0.00000E+00
 -1       531 8.02460E+01 7.68890E+00 0.00000E+00
 -1       532 7.98096E+01 8.75732E+00 0.00000E+00
 -1       533 8.00781E+01 1.00000E+01 0.00000E+00
 -1       534 7.99805E+01 4.38477E+00 0.00000E+00
 -1       535 7.99316E+01 3.26172E+00 0.00000E+00
 -1       536 9.33594E+01 1.00000E+01 0.00000E+00
 -1       537 9.39167E+01 9.15432E+00 0.00000E+00
 -1       538 9.66949E+01 7.28607E+00 0.00000E+00
 -1       539 9.55383E+01 8.32031E+00 0.00000E+00
 -1       540 8.06946E+01 6.73157E+00 0.00000E+00
 -1       541 8.10059E+01 8.99170E+00 0.00000E+00
 -1       542 8.10852E+01 5.70435E+00 0.00000E+00
 -1       543 8.10242E+01 4.69360E+00 0.00000E+00
 -1       544 8.09631E+01 3.68286E+00 0.00000E+00
 -1       545 8.16406E+01 1.00000E+01 0.00000E+00
 -1       546 8.21640E+01 6.63956E+00 0.00000E+00
 -1       547 8.23364E+01 8.20557E+00 0.00000E+00
 -1       548 8.23853E+01 9.23096E+00 0.00000E+00
 -1       549 8.25806E+01 5.10620E+00 0.00000E+00
 -1       550 8.25195E+01 3.81897E+00 0.00000E+00
 -1       551 8.24585E+01 2.53052E+00 0.00000E+00
 -1       552 8.32031E+01 1.00000E+01 0.00000E+00
 -1       553 8.34961E+01 5.83435E+00 0.00000E+00
 -1       554 8.38776E+01 7.71454E+00 0.00000E+00
 -1       555 8.39478E+01 9.21631E+00 0.00000E+00
 -1       556 8.38959E+01 3.91296E+00 0.00000E+00
 -1       557 8.46069E+01 6.57227E+00 0.00000E+00
 -1       558 8.47656E+01 1.00000E+01 0.00000E+00
 -1       559 8.45520E+01 5.38574E+00 0.00000E+00
 -1       560 8.48511E+01 3.37769E+00 0.00000E+00
 -1       561 8.48022E+01 2.31812E+00 0.00000E+00
 -1       562 8.50464E+01 7.61597E+00 0.00000E+00
 -1       563 8.50952E+01 8.67554E+00 0.00000E+00
 -1       564 8.57300E+01 5.45532E+00 0.00000E+00
 -1       565 8.56812E+01 4.38599E+00 0.00000E+00
 -1       566 8.61694E+01 6.50879E+00 0.00000E+00
 -1       567 8.62244E+01 7.71729E+00 0.00000E+00
 -1       568 8.63281E+01 1.00000E+01 0.00000E+00
 -1       569 8.64136E+01 3.25562E+00 0.00000E+00
 -1       570 8.63647E+01 2.17651E+00 0.00000E+00
 -1       571 9.43291E+01 8.01132E+00 0.00000E+00
 -1       572 8.75000E+01 1.00000E+01 0.00000E+00
 -1       573 8.72925E+01 5.37231E+00 0.00000E+00
 -1       574 8.72437E+01 4.28345E+00 0.00000E+00
 -1       575 8.73413E+01 6.46118E+00 0.00000E+00
 -1       576 8.74084E+01 7.95837E+00 0.00000E+00
 -1       577 8.75793E+01 3.02734E+00 0.00000E+00
 -1       578 8.79211E+01 1.89819E+00 0.00000E+00
 -1       579 8.85193E+01 6.55151E+00 0.00000E+00
 -1       580 8.85864E+01 8.06885E+00 0.00000E+00
 -1       581 8.86719E+01 1.00000E+01 0.00000E+00
 -1       582 8.88550E+01 5.28931E+00 0.00000E+00
 -1       583 8.87848E+01 3.69629E+00 0.00000E+00