    1C
    1UUSER                                                              
    1UDATE              01.july.2020                                    
    1UTIME              22:58:51                                        
    1UHOST                                                              
    1UPGM               CalculiX                                        
    1UVERSION           Version 2.15                             
    1UCOMPILETIME       Sa 15. Dez 15:34:34 CET 2018                    
    1UDIR                                                               
    1UDBN                                                               
    1UMAT    1STEEL                                                     
    2C                          9675                                     1
 -1         1 9.97758E+01 1.68855E-01-5.22889E-01
 -1         2 1.00349E+02-5.03438E-02-3.85673E-01
 -1         3 9.99212E+01-3.91505E-01-3.89139E-01
 -1         4 2.67860E+01-1.29834E-01-5.55018E-01
 -1         5 2.61856E+01 5.34058E-08-4.58948E-01
 -1         6 2.66224E+01 4.02111E-01-4.76040E-01
 -1         7-1.57568E-01 9.78272E+00-4.68050E-01
 -1         8 6.00993E-02 1.03509E+01-4.18313E-01
 -1         9 4.16129E-01 9.92225E+00-4.80280E-01
 -1        10 3.35400E+01 1.04378E+01-3.84163E-01
 -1        11 3.39053E+01 9.99213E+00-4.16868E-01
 -1        12 3.31973E+01 9.99216E+00-5.40790E-01
 -1        13 6.28543E+00-1.34334E-01-4.17589E-01
 -1        14 6.80831E+00-8.79295E-02-5.11586E-01
 -1        15 6.63201E+00-5.39967E-01 1.75391E-02
 -1        16 1.26642E+01-3.69233E-01 1.39750E-01
 -1        17 1.33559E+01-8.69344E-02-5.03518E-01
 -1        18 1.33503E+01-5.42664E-01-6.49979E-03
 -1        19 1.97591E+01-5.28534E-01-3.49374E-02
 -1        20 2.00925E+01-6.43990E-02-5.49068E-01
 -1        21 2.02747E+01-5.21734E-01-5.20635E-02
 -1        22 2.64009E+01-5.24394E-01-5.31851E-02
 -1        23 2.69154E+01-5.28520E-01-6.98749E-02
 -1        24 2.74758E+01 2.79500E-01-2.94743E-01
 -1        25 5.28959E+01-4.24594E-01-3.49374E-02
 -1        26 5.33050E+01-2.29536E-03-5.55685E-01
 -1        27 5.34809E+01-5.03203E-01-8.81568E-02
 -1        28 5.97343E+01-5.20442E-01-3.49374E-02
 -1        29 5.98522E+01 4.88792E-04-5.32537E-01
 -1        30 6.03441E+01-3.90981E-01-1.92371E-01
 -1        31 6.57473E+01 1.90688E-01-2.39438E-01
 -1        32 6.65845E+01-2.88985E-02-5.33092E-01
 -1        33 6.63725E+01-5.15658E-01-4.92503E-02
 -1        34 6.68903E+01-5.36530E-01-6.98749E-02
 -1        35 7.28383E+01-2.78923E-01-3.07475E-01
 -1        36 7.33474E+01-3.30723E-03-5.45420E-01
 -1        37 7.33680E+01-5.32645E-01-3.46471E-02
 -1        38 7.39993E+01-2.80419E-01-1.59909E-01
 -1        39-4.58196E-01-1.82154E-01 1.83295E-01
 -1        40 2.39761E-02-1.07434E-02-5.16571E-01
 -1        41-7.98237E-02-4.97935E-01-1.21825E-01
 -1        42 1.25140E+01 1.39750E-01-3.24249E-01
 -1        43 1.93032E+01 1.04813E-01-3.60312E-01
 -1        44 3.31906E+01-3.67455E-01-3.67797E-01
 -1        45 3.25177E+01 2.62031E-01-3.25943E-01
 -1        46 3.34487E+01 6.40210E-02-5.41276E-01
 -1        47 3.36840E+01-5.06351E-01 4.57764E-08
 -1        48 3.42586E+01 2.44563E-01-2.35965E-01
 -1        49 3.99840E+01-4.64907E-01-1.57138E-01
 -1        50 3.94095E+01 1.39750E-01-4.16379E-01
 -1        51 4.01492E+01 6.54108E-02-5.36375E-01
 -1        52 4.09169E+01 2.09625E-01-2.42507E-01
 -1        53 4.76572E+01 5.34058E-08-1.91151E-01
 -1        54 4.66751E+01-4.73567E-01-1.61649E-01
 -1        55 4.65004E+01 1.00599E-01-5.33039E-01
 -1        56 5.26560E+01 1.39750E-01-3.79923E-01
 -1        57 5.41712E+01 3.93047E-01-2.88032E-01
 -1        58 5.91892E+01 1.39750E-01-3.28144E-01
 -1        59 6.08930E+01 2.62031E-01-2.87345E-01
 -1        60 7.25196E+01 2.09625E-01-3.37612E-01
 -1        61 7.41504E+01 3.49375E-01-2.72775E-01
 -1        62 7.99502E+01-4.61509E-01-1.55764E-01
 -1        63 7.92176E+01 2.09625E-01-3.49947E-01
 -1        64 8.01235E+01 6.44646E-02-5.40192E-01
 -1        65 8.09324E+01 2.44563E-01-2.33271E-01
 -1        66 8.67142E+01-5.33376E-01-1.74601E-02
 -1        67 8.62797E+01-1.22466E-01-4.42637E-01
 -1        68 8.68556E+01 1.31128E-01-5.27161E-01
 -1        69 8.72795E+01-3.17682E-01-1.07072E-01
 -1        70 8.76602E+01 6.98751E-02-2.06784E-01
 -1        71 9.25699E+01-2.79546E-01 5.26905E-08
 -1        72 9.24590E+01 1.39750E-01-2.98866E-01
 -1        73 9.31746E+01 1.00525E-01-5.34177E-01
 -1        74 9.34182E+01-4.78592E-01-1.04567E-01
 -1        75 9.41891E+01 5.34058E-08-2.78016E-01
 -1        76 9.91618E+01 1.39750E-01-3.15602E-01
 -1        77 7.42579E+00 3.23172E-01-3.33432E-01
 -1        78 6.84775E+00 7.43021E-01-2.57113E-01
 -1        79 2.57616E+01-2.74067E-01 2.27094E-01
 -1        80 2.56358E+01 3.84313E-01-2.42139E-01
 -1        81 4.69560E+01 6.77207E-01-3.39310E-01
 -1        82 6.02323E+01 8.05850E-01-2.12156E-01
 -1        83 9.33530E+01 1.02408E+00 2.09625E-01
 -1        84 2.79500E-01 6.76392E-01-3.39905E-01
 -1        85 1.03604E+00 6.30970E-01-1.64213E-01
 -1        86 1.00845E+00 6.98751E-02-1.98064E-01
 -1        87 5.81127E+00 1.39750E-01-3.07678E-01
 -1        88 6.14900E+00 1.03611E+00-1.43836E-01
 -1        89 1.22957E+01 8.08119E-01-9.07214E-02
 -1        90 1.42190E+01 2.62031E-01-2.90073E-01
 -1        91 1.36256E+01 8.78517E-01-1.69081E-01
 -1        92 1.87269E+01 2.78913E-01-1.04461E-01
 -1        93 1.95650E+01 8.12716E-01-2.69509E-01
 -1        94 3.30159E+01 8.93831E-01-1.39838E-01
 -1        95 3.88014E+01 4.90793E-01-1.46476E-01
 -1        96 3.99685E+01 1.04307E+00 1.39750E-01
 -1        97 4.03179E+01 6.78499E-01-3.33270E-01
 -1        98 4.57837E+01 1.39750E-01-2.94839E-01
 -1        99 4.62572E+01 8.26862E-01-2.53890E-01
 -1       100 4.66765E+01 1.07121E+00 4.19250E-01
 -1       101 4.76981E+01 6.54148E-01-1.29430E-01
 -1       102 5.35242E+01 7.80593E-01-2.22666E-01
 -1       103 6.60319E+01 8.96258E-01-1.72898E-01
 -1       104 7.98671E+01 8.99257E-01-1.23196E-01
 -1       105 8.66450E+01 1.02673E+00 2.09625E-01
 -1       106 8.69245E+01 6.74239E-01-3.40979E-01
 -1       107 8.77815E+01 7.03673E-01-1.04671E-01
 -1       108 9.29338E+01 8.26354E-01-2.54513E-01
 -1       109 9.44225E+01 6.79817E-01-1.09740E-01
 -1       110 9.97815E+01 6.91357E-01-3.16373E-01
 -1       111 1.29967E+01 8.04419E-01-2.61916E-01
 -1       112 2.02638E+01 8.27691E-01-2.36620E-01
 -1       113 2.08841E+01 2.00891E-01-2.65842E-01
 -1       114 2.64128E+01 9.86179E-01-1.17042E-01
 -1       115 2.69718E+01 8.05470E-01-2.59890E-01
 -1       116 5.28255E+01 8.38500E-01-2.50355E-01
 -1       117 6.68005E+01 8.38500E-01-2.07792E-01
 -1       118 6.75575E+01 2.00891E-01-2.63079E-01
 -1       119 7.30892E+01 9.82871E-01-1.15689E-01
 -1       120 8.03562E+01 8.02721E-01-2.62724E-01
 -1       121 8.56360E+01 3.49375E-01-2.52047E-01
 -1       122 6.73296E-02 4.85568E+00-5.19605E-01
 -1       123 8.59289E-01 4.96113E+00-3.03968E-01
 -1       124 4.19250E-01 4.02678E+00-1.53583E-01
 -1       125 5.62910E+00 4.46766E+00-1.85373E-01
 -1       126 6.65338E+00 4.92891E+00-5.62355E-01
 -1       127 6.28875E+00 4.22661E+00-2.65592E-01
 -1       128 6.95256E+00 4.05972E+00-1.23738E-01
 -1       129 1.24978E+01 4.68163E+00-2.71406E-01
 -1       130 1.34440E+01 4.96288E+00-5.58870E-01
 -1       131 1.29967E+01 4.22189E+00-2.64496E-01
 -1       132 1.35557E+01 4.15270E+00-1.83244E-01
 -1       133 1.91467E+01 4.61175E+00-2.90148E-01
 -1       134 2.02638E+01 4.20086E+00-2.41515E-01
 -1       135 1.97048E+01 4.22089E+00-2.61873E-01
 -1       136 2.66224E+01 4.05400E+00-7.07380E-02
 -1       137 2.65000E+01 4.90556E+00-5.61372E-01
 -1       138 2.71115E+01 4.21517E+00-2.71085E-01
 -1       139 3.30509E+01 4.15125E+00-1.71604E-01
 -1       140 3.34630E+01 4.96168E+00-5.37011E-01
 -1       141 3.38195E+01 4.19250E+00-2.57455E-01
 -1       142 3.42390E+01 4.96113E+00-2.91431E-01
 -1       143 3.93186E+01 4.60687E+00-3.18002E-01
 -1       144 4.08356E+01 4.96113E+00-3.13399E-01
 -1       145 4.01781E+01 4.17871E+00-1.82989E-01
 -1       146 4.66765E+01 3.95066E+00 4.19250E-01
 -1       147 4.74619E+01 4.71656E+00-3.41408E-01
 -1       148 4.73054E+01 3.86249E+00-8.09391E-02
 -1       149 5.23045E+01 4.46727E+00-1.87279E-01
 -1       150 5.33296E+01 4.92943E+00-5.62931E-01
 -1       151 5.29652E+01 4.22509E+00-2.65464E-01
 -1       152 5.35242E+01 4.10135E+00-1.43110E-01
 -1       153 5.91725E+01 4.68163E+00-2.73729E-01
 -1       154 6.01200E+01 4.96362E+00-5.58002E-01
 -1       155 5.93937E+01 3.73663E+00 1.25963E-03
 -1       156 6.02323E+01 4.15066E+00-1.84758E-01
 -1       157 6.61009E+01 4.40669E+00-3.00797E-01
 -1       158 6.69712E+01 5.03100E+00-5.39652E-01
 -1       159 6.68005E+01 4.05959E+00-9.25237E-02
 -1       160 7.29495E+01 4.34748E+00-3.31730E-01
 -1       161 7.34227E+01 4.93251E+00-5.42789E-01
 -1       162 7.32290E+01 3.91537E+00 5.13381E-01
 -1       163 7.42176E+01 4.96113E+00-3.00452E-01
 -1       164 7.97274E+01 4.15347E+00-1.70758E-01
 -1       165 8.07042E+01 4.85631E+00-3.68572E-01
 -1       166 8.04960E+01 4.19250E+00-2.55882E-01
 -1       167 8.66450E+01 3.99528E+00 2.09625E-01
 -1       168 8.68387E+01 4.92570E+00-5.31045E-01
 -1       169 8.71691E+01 3.99709E+00-1.53921E-01
 -1       170 8.76074E+01 4.96113E+00-2.76452E-01
 -1       171-1.71303E-01 4.22427E+00 3.49375E-01
 -1       172-4.68315E-01 4.98672E+00-1.61309E-01
 -1       173 7.55296E+00 4.68163E+00-2.85954E-01
 -1       174 1.29451E+01 5.10087E+00-5.05136E-01
 -1       175 1.41285E+01 4.79517E+00-3.30044E-01
 -1       176 2.02968E+01 5.03100E+00-5.42362E-01
 -1       177 1.96785E+01 5.10087E+00-5.26430E-01
 -1       178 2.08827E+01 4.80391E+00-2.87016E-01
 -1       179 2.58147E+01 4.69909E+00-3.18616E-01
 -1       180 2.70656E+01 4.92619E+00-5.01238E-01
 -1       181 2.76660E+01 4.61175E+00-2.48746E-01
 -1       182 3.25452E+01 4.70783E+00-3.26947E-01
 -1       183 4.00072E+01 5.02759E+00-5.64728E-01
 -1       184 4.63970E+01 4.35088E+00-3.42374E-01
 -1       185 4.56010E+01 4.46859E+00-1.79129E-01
 -1       186 4.66729E+01 4.99547E+00-5.63825E-01
 -1       187 5.42270E+01 4.68163E+00-2.83930E-01
 -1       188 5.96193E+01 5.10087E+00-5.07847E-01
 -1       189 6.08329E+01 4.69909E+00-3.24808E-01
 -1       190 6.53745E+01 5.03100E+00 4.57764E-08
 -1       191 6.61574E+01 4.96113E+00-4.54128E-01
 -1       192 6.75550E+01 4.80391E+00-2.85013E-01
 -1       193 7.24901E+01 4.69909E+00-3.21437E-01
 -1       194 7.99777E+01 5.02781E+00-5.66140E-01
 -1       195 7.91283E+01 4.59428E+00-2.84881E-01
 -1       196 8.63655E+01 4.34825E+00-3.40323E-01
 -1       197 8.57213E+01 4.57681E+00-2.52412E-01
 -1       198 9.30735E+01 4.35192E+00-3.42874E-01
 -1       199 9.22765E+01 4.46834E+00-1.81101E-01
 -1       200 9.25864E+01 5.24063E+00-3.41665E-01
 -1       201 9.33530E+01 3.99794E+00 2.09625E-01
 -1       202 9.33472E+01 4.99555E+00-5.64083E-01
 -1       203 9.41372E+01 4.71656E+00-3.38585E-01
 -1       204 9.97815E+01 4.35728E+00-3.44231E-01
 -1       205 9.90175E+01 4.46165E+00-1.90061E-01
 -1       206 1.00005E+02 4.93051E+00-5.62144E-01
 -1       207 5.34251E+00 5.03100E+00 3.14688E-02
 -1       208 7.51806E+00 5.46772E+00-2.84388E-01
 -1       209 1.38352E+01 5.58399E+00-3.32156E-01
 -1       210 1.90232E+01 5.31050E+00-2.53482E-01
 -1       211 2.75471E+01 5.36291E+00-2.67079E-01
 -1       212 5.26120E+01 5.24063E+00-3.50864E-01
 -1       213 5.41300E+01 5.36291E+00-3.33090E-01
 -1       214 6.08241E+01 5.31050E+00-2.99521E-01
 -1       215 7.92208E+01 5.26683E+00-3.33437E-01
 -1       216 8.59035E+01 5.25809E+00-3.42442E-01
 -1       217 9.86857E+01 5.03100E+00 2.19116E-02
 -1       218 6.14900E+00 5.31050E+00-4.37594E-01
 -1       219 6.84775E+00 5.76840E+00-2.55114E-01
 -1       220 1.20298E+01 5.03100E+00 1.12722E-02
 -1       221 1.43403E+01 5.41531E+00-2.48348E-01
 -1       222 2.53745E+01 5.03100E+00 4.57764E-08
 -1       223 2.56358E+01 5.41531E+00-2.40938E-01
 -1       224 4.03528E+01 5.63735E+00-3.48096E-01
 -1       225 4.75948E+01 5.39784E+00-2.34586E-01
 -1       226 5.35242E+01 5.77100E+00-2.55644E-01
 -1       227 5.87014E+01 5.03100E+00 6.40313E-03
 -1       228 7.20412E+01 5.03100E+00 4.57764E-08
 -1       229 7.24013E+01 5.40910E+00-2.13329E-01
 -1       230 8.03213E+01 5.63968E+00-3.50283E-01
 -1       231 8.70293E+01 5.63634E+00-3.47214E-01
 -1       232 9.42695E+01 5.39784E+00-2.32247E-01
 -1       233 9.98863E+01 5.52013E+00-3.91042E-01
 -1       234 1.00394E+02 5.44885E+00-1.53832E-02
 -1       235 1.00507E+02 4.92619E+00-8.68524E-02
 -1       236 2.79500E-01 5.70277E+00-3.37980E-01
 -1       237 1.02238E+00 5.66070E+00-1.60542E-01
 -1       238 1.28637E+01 5.64457E+00-3.11001E-01
 -1       239 1.95650E+01 5.83888E+00-2.67456E-01
 -1       240 2.02638E+01 5.85628E+00-2.31685E-01
 -1       241 2.08607E+01 5.50266E+00-2.54783E-01
 -1       242 2.63429E+01 5.94754E+00-1.52912E-01
 -1       243 2.68320E+01 5.71092E+00-3.26930E-01
 -1       244 3.25617E+01 5.93937E+00-1.14735E-01
 -1       245 3.23338E+01 5.41531E+00-2.50625E-01
 -1       246 3.33304E+01 5.59000E+00-3.93243E-01
 -1       247 3.42874E+01 5.66111E+00-1.71528E-01
 -1       248 3.88014E+01 5.52077E+00-1.45048E-01
 -1       249 3.99685E+01 6.06170E+00 2.09625E-01
 -1       250 4.09928E+01 5.66088E+00-1.65436E-01
 -1       251 4.55624E+01 5.34544E+00-1.98628E-01
 -1       252 4.62572E+01 5.85556E+00-2.50856E-01
 -1       253 4.61175E+01 5.31050E+00-4.28634E-01
 -1       254 4.66765E+01 6.09315E+00 4.19250E-01
 -1       255 5.93359E+01 5.57989E+00-2.93420E-01
 -1       256 6.02323E+01 5.83835E+00-2.06515E-01
 -1       257 6.62415E+01 5.84043E+00-2.67759E-01
 -1       258 6.67306E+01 6.00139E+00-6.56950E-02
 -1       259 6.75360E+01 5.50266E+00-2.52920E-01
 -1       260 7.42577E+01 5.66123E+00-1.75915E-01
 -1       261 7.35085E+01 5.71085E+00-3.27085E-01
 -1       262 7.98671E+01 5.92361E+00-1.21501E-01
 -1       263 8.09633E+01 5.66106E+00-1.70114E-01
 -1       264 8.66450E+01 6.04876E+00 2.09625E-01
 -1       265 8.77491E+01 5.73166E+00-1.01664E-01
 -1       266 9.33530E+01 6.04612E+00 2.09625E-01
 -1       267 9.94671E+01 5.93085E+00-1.88441E-01
 -1       268 6.14900E+00 6.06601E+00-1.39970E-01
 -1       269 1.34160E+01 6.11119E+00 4.98359E-01
 -1       270 3.31208E+01 5.99709E+00-1.08027E-01
 -1       271 5.28255E+01 5.86950E+00-2.46842E-01
 -1       272 5.97034E+01 5.98744E+00-1.38507E-01
 -1       273 9.28639E+01 6.05978E+00-1.44678E-01
 -1       274 4.19250E-01 9.08700E+00-1.76349E-01
 -1       275 8.91377E-01 9.92225E+00-2.86810E-01
 -1       276 1.31365E+01 9.37557E+00-3.38333E-01
 -1       277 1.34715E+01 9.92834E+00-5.66028E-01
 -1       278 1.36256E+01 9.14174E+00-1.60327E-01
 -1       279 1.41820E+01 9.81744E+00-2.95956E-01
 -1       280 1.95650E+01 9.37346E+00-2.95573E-01
 -1       281 2.01956E+01 1.00466E+01-5.23292E-01
 -1       282 2.01939E+01 9.08234E+00-7.87799E-02
 -1       283 3.30509E+01 9.17885E+00-1.74886E-01
 -1       284 3.38894E+01 8.89076E+00-8.43509E-02
 -1       285 4.66765E+01 8.97247E+00 4.19250E-01
 -1       286 4.68813E+01 9.88785E+00-5.23896E-01
 -1       287 4.72355E+01 9.08375E+00-1.84704E-01
 -1       288 6.61018E+01 9.92225E+00-4.36524E-01
 -1       289 6.71499E+01 9.22670E+00-2.23818E-01
 -1       290 6.59444E+01 8.88846E+00-2.49087E-02
 -1       291 7.97274E+01 9.18107E+00-1.74107E-01
 -1       292 8.01204E+01 9.99174E+00-5.26561E-01
 -1       293 8.05659E+01 8.89051E+00-8.47456E-02
 -1       294 8.07004E+01 9.50734E+00-2.95116E-01
 -1       295 9.23022E+01 9.42841E+00-1.75076E-01
 -1       296 9.32133E+01 9.64357E+00-4.84380E-01
 -1       297 9.33530E+01 9.08435E+00 4.57764E-08
 -1       298 9.39120E+01 9.08375E+00-1.83234E-01
 -1       299 6.80810E+00 1.01408E+01-5.09502E-01
 -1       300 6.95256E+00 9.08739E+00-1.27149E-01
 -1       301 6.28567E+00 1.02251E+01-4.16098E-01
 -1       302 7.48426E+00 9.81744E+00-3.07782E-01
 -1       303 1.23711E+01 9.48673E+00-1.97133E-01
 -1       304 1.30586E+01 1.02252E+01-4.58835E-01
 -1       305 1.94253E+01 9.92225E+00-4.32575E-01
 -1       306 1.88333E+01 9.52047E+00-1.69396E-01
 -1       307 2.08799E+01 9.81744E+00-2.83862E-01
 -1       308 2.66224E+01 9.08336E+00-7.87191E-02
 -1       309 2.58148E+01 9.73009E+00-3.19759E-01
 -1       310 2.66546E+01 1.00438E+01-5.36523E-01
 -1       311 2.69019E+01 9.43754E+00-3.66051E-01
 -1       312 2.76240E+01 9.78250E+00-2.64838E-01
 -1       313 3.25178E+01 9.73009E+00-3.31695E-01
 -1       314 3.98288E+01 9.27637E+00-2.25633E-01
 -1       315 3.91579E+01 9.62528E+00-2.95519E-01
 -1       316 3.98677E+01 1.01416E+01-5.10846E-01
 -1       317 4.04926E+01 9.02602E+00-1.57328E-01
 -1       318 4.03891E+01 1.01883E+01-4.13880E-01
 -1       319 4.08638E+01 9.92225E+00-3.00015E-01
 -1       320 4.55192E+01 9.35445E+00-1.09716E-01
 -1       321 4.56687E+01 9.99213E+00-1.95097E-01
 -1       322 4.64681E+01 1.02729E+01-4.68710E-01
 -1       323 4.63970E+01 9.37720E+00-3.44293E-01
 -1       324 4.76882E+01 9.71263E+00-2.56275E-01
 -1       325 5.36989E+01 9.11969E+00-1.51540E-01
 -1       326 5.23416E+01 9.49097E+00-1.91224E-01
 -1       327 5.29610E+01 1.02274E+01-4.18444E-01
 -1       328 5.34840E+01 1.01401E+01-5.08091E-01
 -1       329 5.41583E+01 9.81744E+00-3.04993E-01
 -1       330 6.03371E+01 9.13964E+00-1.45269E-01
 -1       331 5.90470E+01 9.48475E+00-1.98932E-01
 -1       332 5.97339E+01 1.02262E+01-4.60859E-01
 -1       333 6.02168E+01 9.92599E+00-5.47222E-01
 -1       334 6.08561E+01 9.81744E+00-2.93103E-01
 -1       335 6.68710E+01 1.00467E+01-5.21564E-01
 -1       336 6.75540E+01 9.81744E+00-2.80944E-01
 -1       337 7.35784E+01 9.43806E+00-3.64794E-01
 -1       338 7.32290E+01 8.83903E+00 2.79500E-01
 -1       339 7.34708E+01 1.00584E+01-5.32611E-01
 -1       340 7.24902E+01 9.73009E+00-3.22629E-01
 -1       341 7.43342E+01 9.74756E+00-2.42447E-01
 -1       342 7.91982E+01 9.69516E+00-3.28480E-01
 -1       343 8.09268E+01 1.01467E+01-1.13615E-01
 -1       344 8.11857E+01 9.64275E+00-1.83066E-01
 -1       345 8.65818E+01 9.95421E+00-5.63037E-01
 -1       346 8.65052E+01 9.27967E+00-2.25070E-01
 -1       347 8.59037E+01 9.69516E+00-3.40080E-01
 -1       348 8.71691E+01 9.02577E+00-1.57289E-01
 -1       349 8.70620E+01 1.01876E+01-4.11692E-01
 -1       350 8.75391E+01 9.92225E+00-2.95911E-01
 -1       351 9.23422E+01 9.99213E+00-1.99146E-01
 -1       352 9.32416E+01 1.01837E+01-5.00527E-01
 -1       353 9.41619E+01 9.79997E+00-3.01153E-01
 -1       354 9.97815E+01 9.38371E+00-3.46357E-01
 -1       355 9.90175E+01 9.48989E+00-1.93092E-01
 -1       356 9.96363E+01 1.02295E+01-4.20754E-01
 -1       357 1.00163E+02 9.97760E+00-5.00118E-01
 -1       358 2.57511E+01 1.02804E+01 6.98751E-02
 -1       359 2.61333E+01 1.02587E+01-3.24216E-01
 -1       360 4.75019E+01 1.01956E+01-1.38213E-01
 -1       361 7.24269E+01 1.02853E+01 6.98751E-02
 -1       362 7.28098E+01 1.02625E+01-3.27159E-01
 -1       363-5.52790E-01 1.00296E+01 3.40641E-08
 -1       364 6.89644E+00 1.05593E+01 6.98816E-02
 -1       365 1.25226E+01 1.03632E+01 1.39750E-01
 -1       366 1.32541E+01 1.05745E+01 3.50055E-02
 -1       367 1.93952E+01 1.04430E+01 1.39750E-01
 -1       368 2.00546E+01 1.05798E+01-9.11299E-02
 -1       369 2.66555E+01 1.05752E+01-5.67679E-02
 -1       370 3.23047E+01 1.01348E+01-7.54459E-02
 -1       371 3.30780E+01 1.05488E+01 3.56752E-02
 -1       372 3.90722E+01 1.01182E+01-1.46484E-01
 -1       373 3.97791E+01 1.05595E+01 1.14261E-06
 -1       374 4.61175E+01 1.04664E+01 4.57764E-08
 -1       375 4.67979E+01 1.05534E+01-9.00549E-02
 -1       376 5.26857E+01 1.04161E+01 6.98751E-02
 -1       377 5.39400E+01 1.03813E+01 3.79972E-01
 -1       378 5.91978E+01 1.03670E+01 1.39750E-01
 -1       379 5.99272E+01 1.05750E+01 3.50243E-02
 -1       380 6.59006E+01 1.03827E+01 1.39750E-01
 -1       381 6.66962E+01 1.05667E+01-9.05050E-02
 -1       382 7.33305E+01 1.05873E+01-6.97669E-02
 -1       383 7.95178E+01 1.04945E+01 4.57764E-08
 -1       384 8.01003E+01 1.05234E+01-1.90798E-01
 -1       385 8.64897E+01 1.05364E+01-8.90864E-02
 -1       386 9.27940E+01 1.04709E+01 4.57764E-08
 -1       387 9.34736E+01 1.05519E+01-8.92516E-02
 -1       388 9.91353E+01 1.03370E+01 1.74688E-01
 -1       389 5.33401E+01 1.06111E+01 3.27272E-05
 -1       390 9.98275E+01 1.05512E+01 1.39750E-01
 -1       391 3.31747E+01-5.45018E-01 1.14285E-01
 -1       392 9.97109E+01-4.77020E-01 2.44563E-01
 -1       393 1.00253E+02-4.62816E-01 1.27483E-01
 -1       394 9.00404E-01-2.66074E-01 4.19250E-01
 -1       395 5.69681E+00-2.13570E-01 6.98751E-02
 -1       396 3.24595E+01-2.86281E-01 2.27094E-01
 -1       397 4.57935E+01-2.67911E-01 1.22281E-01
 -1       398 7.24357E+01-2.76996E-01 2.27094E-01
 -1       399 8.59517E+01-3.40092E-01 4.57764E-08
 -1       400 9.43443E+01-2.21657E-01 4.89125E-01
 -1       401 9.90870E+01-2.62409E-01 1.39750E-01
 -1       402 7.55691E+00-2.62098E-01 4.40365E-01
 -1       403 7.88665E+00-1.98208E-02-2.04558E-02
 -1       404 1.18369E+01 5.76469E-01-5.02334E-02
 -1       405 1.91689E+01-3.04491E-01 1.39750E-01
 -1       406 3.90369E+01-2.41437E-01 4.54188E-01
 -1       407 3.92777E+01-3.36301E-01 4.57764E-08
 -1       408 5.23715E+01-2.18006E-01 6.98751E-02
 -1       409 5.41274E+01-3.28268E-01 3.31906E-01
 -1       410 5.45582E+01-1.82287E-02-1.88125E-02
 -1       411 5.91455E+01-2.93906E-01 1.39750E-01
 -1       412 5.84206E+01 3.07118E-03 2.79500E-01
 -1       413 7.46234E+01 3.13091E-03 6.36987E-03
 -1       414 7.91336E+01-2.89147E-01 2.27094E-01
 -1       415 1.00441E+02 3.49095E-01 1.04813E-01
 -1       416 1.69146E+00 4.71656E-01 3.45756E-02
 -1       417 5.45025E+00 7.01630E-01-7.24949E-02
 -1       418 5.22146E+00-3.16896E-02 5.74049E-01
 -1       419 8.27988E+00 4.89125E-01 1.92073E-02
 -1       420 2.51953E+01 6.30551E-01-1.11544E-02
 -1       421 2.79493E+01 6.78473E-04 1.38019E-03
 -1       422 2.80597E+01 7.33688E-01-3.62619E-02
 -1       423 2.84263E+01 3.49375E-01 9.00252E-02
 -1       424 3.17986E+01 4.19250E-01-4.85621E-02
 -1       425 4.16717E+01 4.71656E-01 2.59088E-02
 -1       426 4.12139E+01 7.04065E-01-8.13321E-02
 -1       427 4.54187E+01 7.18471E-01-6.17076E-02
 -1       428 4.52231E+01-6.71668E-03 6.82617E-01
 -1       429 4.83078E+01 5.41531E-01 2.19049E-03
 -1       430 5.21267E+01 6.70083E-01-8.30643E-02
 -1       431 5.16277E+01 7.33688E-01 4.24349E-02
 -1       432 5.49874E+01 2.79500E-01 4.61595E-02
 -1       433 5.88347E+01 4.89125E-01-1.76127E-01
 -1       434 5.85552E+01 1.11800E+00 2.96751E-01
 -1       435 6.54003E+01-8.76319E-02 3.33829E-01
 -1       436 6.49562E+01 2.87360E-01 1.29966E-01
 -1       437 7.19411E+01 5.42455E-01-6.60382E-02
 -1       438 7.45956E+01 7.80791E-01-3.79821E-02
 -1       439 7.50909E+01 3.66844E-01 9.28494E-02
 -1       440 7.86464E+01 5.42848E-01-7.80440E-02
 -1       441 8.83445E+01 4.71656E-01 2.86003E-02
 -1       442 9.20953E+01 7.01174E-01-6.61752E-02
 -1       443 9.18716E+01-2.67833E-02 5.73121E-01
 -1       444 9.88028E+01 7.02232E-01-7.78992E-02
 -1       445 9.83030E+01 7.33688E-01 4.01620E-02
 -1       446-9.65163E-02 9.07902E-01 2.79500E-01
 -1       447 4.95237E+00 7.33688E-01 4.47282E-02
 -1       448 2.17687E+01 4.89125E-01 6.96767E-02
 -1       449 2.12855E+01 8.05072E-01-9.83454E-03
 -1       450 4.49197E+01 6.63813E-01 3.69034E-02
 -1       451 5.47108E+01 7.74393E-01-4.17467E-03
 -1       452 6.17491E+01 4.89125E-01 6.08370E-02
 -1       453 6.13309E+01 9.58852E-01 1.25269E-01
 -1       454 9.15938E+01 6.63813E-01 3.45789E-02
 -1       455 7.40675E+00 1.22540E+00-3.72171E-02
 -1       456 7.82600E+00 8.50915E-01-6.09602E-03
 -1       457 1.45456E+01 9.78924E-01 1.00983E-01
 -1       458 1.49636E+01 5.06594E-01 3.57473E-02
 -1       459 1.83233E+01 6.98750E-01 2.22630E-02
 -1       460 1.90060E+01 9.45321E-01-3.69688E-02
 -1       461 2.08228E+01 1.21452E+00-2.28794E-02
 -1       462 2.57489E+01 1.09923E+00-1.30315E-02
 -1       463 2.73211E+01 1.20249E+00 1.63756E-02
 -1       464 3.19438E+01 1.08096E+00 1.89737E-01
 -1       465 3.46580E+01 1.11800E+00 3.30058E-01
 -1       466 3.49728E+01 5.06594E-01 2.23150E-02
 -1       467 4.06673E+01 1.23704E+00-3.62713E-02
 -1       468 4.59777E+01 1.29622E+00-1.40393E-02
 -1       469 4.73753E+01 1.22628E+00-4.11482E-02
 -1       470 5.40833E+01 1.22482E+00-3.58155E-02
 -1       471 5.92540E+01 1.17094E+00-1.47803E-02
 -1       472 6.07214E+01 1.12682E+00-8.14694E-02
 -1       473 6.52633E+01 8.43132E-01 1.48525E-02
 -1       474 6.75342E+01 1.12383E+00-2.64910E-02
 -1       475 6.84064E+01 5.15328E-01 6.95414E-02
 -1       476 7.24254E+01 1.10348E+00-1.68534E-02
 -1       477 7.39277E+01 1.28978E+00 5.72996E-03
 -1       478 7.92383E+01 9.08375E-01-1.21074E-01
 -1       479 8.14889E+01 1.23898E+00 5.09670E-01
 -1       480 8.16462E+01 5.06594E-01 2.49583E-02
 -1       481 8.60161E+01 1.16562E+00-7.72526E-02
 -1       482 8.51066E+01 6.48135E-01-7.40453E-04
 -1       483 8.73438E+01 1.23696E+00-3.60016E-02
 -1       484 9.40518E+01 1.22616E+00-4.00130E-02
 -1       485 9.96418E+01 1.17488E+00-2.30683E-02
 -1       486 1.00106E+02 8.75949E-01 1.39750E-01
 -1       487 6.98750E-01 1.22628E+00-4.21998E-02
 -1       488 6.70800E+00 9.63720E-01 6.12068E-01
 -1       489 1.27172E+01 1.29192E+00 3.78448E-03
 -1       490 1.41147E+01 1.27637E+00-2.36660E-03
 -1       491 1.93554E+01 1.39235E+00 6.34679E-02
 -1       492 2.02025E+01 1.25555E+00 1.87650E-01
 -1       493 3.27714E+01 1.31814E+00 5.52690E-02
 -1       494 3.39289E+01 1.35880E+00 9.10852E-02
 -1       495 3.94138E+01 1.46326E+00 1.84190E-01
 -1       496 5.26159E+01 1.23695E+00-1.43120E-03
 -1       497 5.33845E+01 1.13394E+00 4.26256E-01
 -1       498 6.65172E+01 1.21134E+00 1.52709E-01
 -1       499 7.84962E+01 1.24006E+00 3.74309E-01
 -1       500 7.94304E+01 1.35613E+00 9.39185E-02
 -1       501 8.06048E+01 1.36153E+00 9.14763E-02
 -1       502 9.25844E+01 1.34175E+00 1.96160E-02
 -1       503 5.72975E+00 1.44998E+00 7.72741E-02
 -1       504 2.60634E+01 1.53012E+00 1.56502E-01
 -1       505 6.58921E+01 1.58550E+00 1.56525E-01
 -1       506 7.27399E+01 1.52999E+00 1.61113E-01
 -1       507 9.91526E+01 1.76036E+00 2.55154E-01
 -1       508 2.77612E+01 4.11895E+00-3.68526E-02
 -1       509 2.75308E+01 3.57522E+00 6.45349E-02
 -1       510 1.52313E+00 4.38148E+00-1.28409E-02
 -1       511 1.04813E+00 3.44217E+00 1.53449E-01
 -1       512 6.00925E+00 3.79167E+00-3.97365E-02
 -1       513 1.27172E+01 3.73569E+00 5.16430E-04
 -1       514 1.21510E+01 4.31919E+00-9.17861E-02
 -1       515 1.99837E+01 3.80469E+00 2.73192E-01
 -1       516 1.94253E+01 3.74011E+00 4.46376E-03
 -1       517 2.08228E+01 4.00468E+00-8.32022E-02
 -1       518 2.66049E+01 3.64636E+00 4.54188E-01
 -1       519 2.57489E+01 3.95252E+00-2.53227E-02
 -1       520 3.25617E+01 3.74829E+00-4.63630E-03
 -1       521 3.18578E+01 4.15768E+00 9.29936E-02
 -1       522 3.39593E+01 3.72876E+00-1.35761E-02
 -1       523 3.46604E+01 4.08485E+00 8.20125E-02
 -1       524 3.92697E+01 3.80177E+00-4.05700E-02
 -1       525 3.87107E+01 4.18737E+00 4.64036E-03
 -1       526 3.99685E+01 3.91638E+00 4.96304E-01
 -1       527 4.59777E+01 3.80144E+00-4.54107E-02
 -1       528 5.26857E+01 3.79175E+00-3.98411E-02
 -1       529 5.88265E+01 4.31743E+00-9.32046E-02
 -1       530 6.59445E+01 3.86133E+00-2.22939E-02
 -1       531 7.24254E+01 3.95147E+00-2.74842E-02
 -1       532 7.42771E+01 4.26237E+00-1.09332E-01
 -1       533 7.42073E+01 3.74419E+00 1.18768E-02
 -1       534 7.92383E+01 3.74780E+00-6.04814E-03
 -1       535 7.85331E+01 4.15770E+00 9.04013E-02
 -1       536 8.06358E+01 3.72878E+00-1.43904E-02
 -1       537 8.13228E+01 3.88681E+00 3.02914E-01
 -1       538 8.62288E+01 3.47530E+00 2.79500E-01
 -1       539 8.57366E+01 3.92164E+00 5.56373E-03
 -1       540 9.26543E+01 3.79177E+00-3.90953E-02
 -1       541 9.48916E+01 4.38188E+00-2.86494E-03
 -1       542 9.40518E+01 3.67322E+00 1.87537E-02
 -1       543 9.99459E+01 4.01899E+00 6.98751E-02
 -1       544 9.93623E+01 3.79191E+00-3.98273E-02
 -1       545 7.58144E+00 3.44240E+00 1.72857E-01
 -1       546 8.15681E+00 4.39972E+00-8.07967E-03
 -1       547 1.18787E+01 3.88656E+00 2.89109E-01
 -1       548 1.15717E+01 4.40213E+00 3.09202E-02
 -1       549 1.41497E+01 3.93591E+00-5.35396E-02
 -1       550 1.46737E+01 4.05110E+00 1.29136E-01
 -1       551 1.49231E+01 4.61175E+00-1.60730E-02
 -1       552 1.88081E+01 4.19110E+00-2.56498E-02
 -1       553 2.14754E+01 4.25971E+00 4.20535E-03
 -1       554 2.12922E+01 5.03100E+00 4.57764E-08
 -1       555 2.50261E+01 4.33225E+00 9.82247E-03
 -1       556 2.79588E+01 5.03100E+00 4.57764E-08
 -1       557 2.82821E+01 4.61175E+00-9.74007E-03
 -1       558 3.46417E+01 5.03100E+00 1.61163E-02
 -1       559 3.50122E+01 4.57681E+00 2.15357E-02
 -1       560 4.05974E+01 3.79166E+00-4.95217E-02
 -1       561 4.14278E+01 3.77325E+00 3.10130E-01
 -1       562 4.13291E+01 5.03100E+00 3.62138E-02
 -1       563 4.17304E+01 4.36719E+00 3.04853E-02
 -1       564 4.79283E+01 4.18062E+00-4.69844E-03
 -1       565 4.83069E+01 4.52441E+00 4.68157E-03
 -1       566 5.40833E+01 3.86539E+00-5.09148E-02
 -1       567 5.47108E+01 4.01686E+00 1.16844E-01
 -1       568 5.48133E+01 5.03100E+00 1.77408E-01
 -1       569 5.85552E+01 3.91300E+00 2.90209E-01
 -1       570 5.82458E+01 4.40213E+00 2.82900E-02
 -1       571 6.08262E+01 3.93759E+00-5.01927E-02
 -1       572 6.13476E+01 4.05116E+00 1.29930E-01
 -1       573 6.12921E+01 5.03100E+00 4.57764E-08
 -1       574 6.48780E+01 4.20997E+00 1.04263E-01
 -1       575 6.76185E+01 3.95053E+00-1.63514E-02
 -1       576 6.79588E+01 5.03100E+00 4.57764E-08
 -1       577 6.82546E+01 4.61175E+00-2.26672E-02
 -1       578 7.17013E+01 4.33225E+00 7.42897E-03
 -1       579 7.47197E+01 3.98122E+00 1.34496E-01
 -1       580 7.46260E+01 5.03100E+00 5.06983E-04
 -1       581 7.52718E+01 4.36719E+00 1.03728E-01
 -1       582 8.13133E+01 5.03100E+00 2.09344E-02
 -1       583 8.16308E+01 4.29678E+00 2.71774E-02